LAMMPS (23 Jun 2022 - Update 1)
Running on 1 MPI task(s)

Per MPI rank memory allocation = 2.5 Mbytes
Step Temp Press Vol Lx Ly Lz PotEng KinEng TotEng
0 300.00000 1.00000 8000.00000 20.00000 20.00000 20.00000 -500.00000 150.00000 -350.00000
1000 310.00000 1.10000 8010.00000 20.00000 20.00000 20.00000 -450.00000 170.00000 -280.00000
2000 320.00000 1.20000 8020.00000 20.00000 20.00000 20.00000 -400.00000 190.00000 -210.00000
3000 330.00000 1.30000 8030.00000 20.00000 20.00000 20.00000 -350.00000 210.00000 -140.00000
4000 340.00000 1.40000 8040.00000 20.00000 20.00000 20.00000 -300.00000 230.00000 -70.00000

Loop time of 0.125 on 1 procs for 4000 steps
