ITEM: TIMESTEP
0
ITEM: NUMBER OF ATOMS
50
ITEM: BOX BOUNDS pp pp pp
-10.0 10.0
-10.0 10.0
-10.0 10.0
ITEM: ATOMS id mol type xu yu zu
1 1 2 -9.500000 -9.700000 -9.300000
2 1 1 -9.000000 -9.400000 -8.600000
3 1 2 -8.500000 -9.100000 -7.900000
4 1 1 -8.000000 -8.800000 -7.200000
5 1 2 -7.500000 -8.500000 -6.500000
6 1 1 -7.000000 -8.200000 -5.800000
7 1 2 -6.500000 -7.900000 -5.100000
8 1 1 -6.000000 -7.600000 -4.400000
9 1 2 -5.500000 -7.300000 -3.700000
10 1 1 -5.000000 -7.000000 -3.000000
11 2 2 -4.500000 -6.700000 -2.300000
12 2 1 -4.000000 -6.400000 -1.600000
13 2 2 -3.500000 -6.100000 -0.900000
14 2 1 -3.000000 -5.800000 -0.200000
15 2 2 -2.500000 -5.500000 0.500000
16 2 1 -2.000000 -5.200000 1.200000
17 2 2 -1.500000 -4.900000 1.900000
18 2 1 -1.000000 -4.600000 2.600000
19 2 2 -0.500000 -4.300000 3.300000
20 2 1 0.000000 -4.000000 4.000000
21 3 2 0.500000 -3.700000 4.700000
22 3 1 1.000000 -3.400000 5.400000
23 3 2 1.500000 -3.100000 6.100000
24 3 1 2.000000 -2.800000 6.800000
25 3 2 2.500000 -2.500000 7.500000
26 3 1 3.000000 -2.200000 8.200000
27 3 2 3.500000 -1.900000 8.900000
28 3 1 4.000000 -1.600000 9.600000
29 3 2 4.500000 -1.300000 -9.700000
30 3 1 5.000000 -1.000000 -9.000000
31 4 2 5.500000 -0.700000 -8.300000
32 4 1 6.000000 -0.400000 -7.600000
33 4 2 6.500000 -0.100000 -6.900000
34 4 1 7.000000 0.200000 -6.200000
35 4 2 7.500000 0.500000 -5.500000
36 4 1 8.000000 0.800000 -4.800000
37 4 2 8.500000 1.100000 -4.100000
38 4 1 9.000000 1.400000 -3.400000
39 4 2 9.500000 1.700000 -2.700000
40 4 1 -10.000000 2.000000 -2.000000
41 5 2 -9.500000 2.300000 -1.300000
42 5 1 -9.000000 2.600000 -0.600000
43 5 2 -8.500000 2.900000 0.100000
44 5 1 -8.000000 3.200000 0.800000
45 5 2 -7.500000 3.500000 1.500000
46 5 1 -7.000000 3.800000 2.200000
47 5 2 -6.500000 4.100000 2.900000
48 5 1 -6.000000 4.400000 3.600000
49 5 2 -5.500000 4.700000 4.300000
50 5 1 -5.000000 5.000000 5.000000
ITEM: TIMESTEP
1000
ITEM: NUMBER OF ATOMS
50
ITEM: BOX BOUNDS pp pp pp
-10.0 10.0
-10.0 10.0
-10.0 10.0
ITEM: ATOMS id mol type xu yu zu
1 1 2 -8.500000 -7.700000 -7.800000
2 1 1 -8.000000 -7.400000 -7.100000
3 1 2 -7.500000 -7.100000 -6.400000
4 1 1 -7.000000 -6.800000 -5.700000
5 1 2 -6.500000 -6.500000 -5.000000
6 1 1 -6.000000 -6.200000 -4.300000
7 1 2 -5.500000 -5.900000 -3.600000
8 1 1 -5.000000 -5.600000 -2.900000
9 1 2 -4.500000 -5.300000 -2.200000
10 1 1 -4.000000 -5.000000 -1.500000
11 2 2 -3.500000 -4.700000 -0.800000
12 2 1 -3.000000 -4.400000 -0.100000
13 2 2 -2.500000 -4.100000 0.600000
14 2 1 -2.000000 -3.800000 1.300000
15 2 2 -1.500000 -3.500000 2.000000
16 2 1 -1.000000 -3.200000 2.700000
17 2 2 -0.500000 -2.900000 3.400000
18 2 1 0.000000 -2.600000 4.100000
19 2 2 0.500000 -2.300000 4.800000
20 2 1 1.000000 -2.000000 5.500000
21 3 2 1.500000 -1.700000 6.200000
22 3 1 2.000000 -1.400000 6.900000
23 3 2 2.500000 -1.100000 7.600000
24 3 1 3.000000 -0.800000 8.300000
25 3 2 3.500000 -0.500000 9.000000
26 3 1 4.000000 -0.200000 9.700000
27 3 2 4.500000 0.100000 10.400000
28 3 1 5.000000 0.400000 11.100000
29 3 2 5.500000 0.700000 -8.200000
30 3 1 6.000000 1.000000 -7.500000
31 4 2 6.500000 1.300000 -6.800000
32 4 1 7.000000 1.600000 -6.100000
33 4 2 7.500000 1.900000 -5.400000
34 4 1 8.000000 2.200000 -4.700000
35 4 2 8.500000 2.500000 -4.000000
36 4 1 9.000000 2.800000 -3.300000
37 4 2 9.500000 3.100000 -2.600000
38 4 1 10.000000 3.400000 -1.900000
39 4 2 10.500000 3.700000 -1.200000
40 4 1 -9.000000 4.000000 -0.500000
41 5 2 -8.500000 4.300000 0.200000
42 5 1 -8.000000 4.600000 0.900000
43 5 2 -7.500000 4.900000 1.600000
44 5 1 -7.000000 5.200000 2.300000
45 5 2 -6.500000 5.500000 3.000000
46 5 1 -6.000000 5.800000 3.700000
47 5 2 -5.500000 6.100000 4.400000
48 5 1 -5.000000 6.400000 5.100000
49 5 2 -4.500000 6.700000 5.800000
50 5 1 -4.000000 7.000000 6.500000
ITEM: TIMESTEP
2000
ITEM: NUMBER OF ATOMS
50
ITEM: BOX BOUNDS pp pp pp
-10.0 10.0
-10.0 10.0
-10.0 10.0
ITEM: ATOMS id mol type xu yu zu
1 1 2 -7.500000 -5.700000 -6.300000
2 1 1 -7.000000 -5.400000 -5.600000
3 1 2 -6.500000 -5.100000 -4.900000
4 1 1 -6.000000 -4.800000 -4.200000
5 1 2 -5.500000 -4.500000 -3.500000
6 1 1 -5.000000 -4.200000 -2.800000
7 1 2 -4.500000 -3.900000 -2.100000
8 1 1 -4.000000 -3.600000 -1.400000
9 1 2 -3.500000 -3.300000 -0.700000
10 1 1 -3.000000 -3.000000 0.000000
11 2 2 -2.500000 -2.700000 0.700000
12 2 1 -2.000000 -2.400000 1.400000
13 2 2 -1.500000 -2.100000 2.100000
14 2 1 -1.000000 -1.800000 2.800000
15 2 2 -0.500000 -1.500000 3.500000
16 2 1 0.000000 -1.200000 4.200000
17 2 2 0.500000 -0.900000 4.900000
18 2 1 1.000000 -0.600000 5.600000
19 2 2 1.500000 -0.300000 6.300000
20 2 1 2.000000 0.000000 7.000000
21 3 2 2.500000 0.300000 7.700000
22 3 1 3.000000 0.600000 8.400000
23 3 2 3.500000 0.900000 9.100000
24 3 1 4.000000 1.200000 9.800000
25 3 2 4.500000 1.500000 10.500000
26 3 1 5.000000 1.800000 11.200000
27 3 2 5.500000 2.100000 11.900000
28 3 1 6.000000 2.400000 12.600000
29 3 2 6.500000 2.700000 -6.700000
30 3 1 7.000000 3.000000 -6.000000
31 4 2 7.500000 3.300000 -5.300000
32 4 1 8.000000 3.600000 -4.600000
33 4 2 8.500000 3.900000 -3.900000
34 4 1 9.000000 4.200000 -3.200000
35 4 2 9.500000 4.500000 -2.500000
36 4 1 10.000000 4.800000 -1.800000
37 4 2 10.500000 5.100000 -1.100000
38 4 1 11.000000 5.400000 -0.400000
39 4 2 11.500000 5.700000 0.300000
40 4 1 -8.000000 6.000000 1.000000
41 5 2 -7.500000 6.300000 1.700000
42 5 1 -7.000000 6.600000 2.400000
43 5 2 -6.500000 6.900000 3.100000
44 5 1 -6.000000 7.200000 3.800000
45 5 2 -5.500000 7.500000 4.500000
46 5 1 -5.000000 7.800000 5.200000
47 5 2 -4.500000 8.100000 5.900000
48 5 1 -4.000000 8.400000 6.600000
49 5 2 -3.500000 8.700000 7.300000
50 5 1 -3.000000 9.000000 8.000000
